<simulation verbosity='high'>
   <prng>
      <seed>12345</seed>
      <state shape='(624)'>
       [ 2250771220, 3749736521, 786544788, 2776441991, 2305936782, 
         901140659, 1211576142, 3617887898, 18721125, 2521415578, 
         4072761112, 3587104616, 3925608178, 809387634, 2119426956, 
         3221704913, 3279534963, 3051104017, 1103557343, 3365186144, 
         2075618527, 994825289, 2429579958, 959362787, 4205728675, 
         3634340354, 1456454942, 2000577715, 3314575827, 1376864956, 
         2834519967, 2676174864, 1099622845, 2152815645, 1858756433, 
         2305824406, 387084570, 1825117154, 3195259967, 1248573532, 
         3697528554, 1385646780, 819658666, 2495866886, 3919091392, 
         2730959649, 2747038662, 3235100758, 1993327125, 1950441672, 
         2135078135, 2339909987, 3875204738, 1988166660, 2581768801, 
         3868938258, 1616541239, 3303904828, 192872034, 2499606519, 
         2776636375, 1346998737, 744512227, 1682375649, 1092785553, 
         2652392363, 3705535684, 4066788580, 98604634, 1316953991, 
         709067286, 2584299816, 2353917919, 3936914794, 4036521762, 
         2057724786, 433028047, 707084981, 309575648, 257902251, 
         1360704892, 779600608, 2059069809, 304143484, 3420079770, 
         3807080575, 110593303, 1742125927, 2734407627, 2637395476, 
         3059161983, 3857295773, 1837092779, 1840941663, 2001824446, 
         1080002302, 3838105651, 1066231364, 1849691839, 3148905528, 
         3220687661, 1777172629, 868194193, 2202595219, 288513421, 
         2060624714, 775873547, 1120938907, 239317296, 2159965273, 
         3122974555, 3557062014, 4207265034, 199518460, 773135902, 
         2625054447, 290805754, 663136610, 1814644826, 3615043758, 
         516610402, 3454004260, 889906273, 61447246, 2321653141, 
         2569541994, 3012152354, 256444119, 1115159430, 157028069, 
         2805612091, 1514274109, 2222452304, 3162315598, 3714837633, 
         3476353716, 1612279092, 1335118684, 1797435986, 3773234258, 
         615499567, 287732512, 2552358123, 1839450522, 1699402618, 
         2068208568, 1085216813, 488747507, 3771178138, 4161539781, 
         2417419056, 343469920, 2000593644, 2477560688, 1870359468, 
         3825641882, 660089662, 2021780500, 2856610747, 793382309, 
         2659930743, 455119791, 2491385519, 2233156905, 1844966040, 
         1351354597, 1640548284, 705507623, 1481165238, 294258967, 
         795127753, 2733699889, 1684536058, 2599095765, 2303160265, 
         838623932, 2824148606, 1077862252, 608700636, 729648803, 
         2728499980, 3039365131, 1978074074, 1773630647, 2134558389, 
         3667436674, 2011933740, 1077926660, 1309813494, 189396222, 
         2964745095, 3654122080, 1180192019, 107988642, 554554244, 
         1634839552, 2617081296, 618313528, 4112127091, 575814348, 
         883844020, 2930240713, 3777989085, 2938354545, 28672135, 
         3897690239, 2491504235, 3464564101, 1090889961, 2180715856, 
         1647638653, 431989129, 3381756963, 3406812689, 3316790656, 
         202117148, 3075865453, 1575638971, 733212967, 2583224635, 
         1351540504, 1756397817, 305110543, 2464389857, 624918165, 
         20319040, 3952423964, 1161587951, 37525509, 1708704040, 
         2335397971, 2479001895, 917312815, 1209417659, 3077919508, 
         3069073605, 295117705, 917557899, 1643792806, 242424339, 
         373276375, 557492217, 998511614, 1595887795, 438406348, 
         827104951, 2667404157, 4175094923, 1855193463, 3528173100, 
         1965018501, 2867558009, 2875877394, 2824301740, 4274754146, 
         2920904213, 2070990203, 1966031963, 3554900548, 3637646936, 
         2394982871, 1626753156, 2907117803, 3211994047, 62788179, 
         932410706, 4052983831, 483908509, 1537859752, 383540229, 
         2270919074, 1761495475, 2767130046, 4112052080, 2653637724, 
         2288206243, 182784581, 1179412080, 3563266897, 1046354095, 
         3425560985, 2671915226, 2223389436, 926210723, 934348808, 
         1401466483, 2598027950, 1233809923, 237379098, 2426077671, 
         3136524786, 1709770865, 1599777752, 2316736269, 2192990508, 
         650637398, 2994862162, 1033861375, 984427681, 3957581007, 
         1494565036, 2504221668, 1757578207, 1149035892, 3983690988, 
         3372543311, 2628052272, 3204967780, 1027701896, 315430551, 
         614914232, 2022937610, 3512566805, 1601175869, 3490145312, 
         431152594, 4125666294, 1318509943, 3295539854, 465372349, 
         3874613789, 1830985549, 1378047775, 1418876273, 1369541679, 
         4276752129, 2556551760, 2540838912, 2752525427, 3270053771, 
         4098843117, 1879780071, 3164324588, 2815274960, 3707244232, 
         866943785, 408860070, 1865402919, 1962784327, 2651255756, 
         2562150777, 1251105106, 1565556403, 367139025, 1674631574, 
         3600853346, 1707382707, 2963292280, 738482583, 1783322, 
         561108556, 1318821731, 1397757328, 1113076494, 3150581268, 
         2880524478, 3858301104, 1920398873, 2600597906, 2435582565, 
         3403852885, 1792832124, 4049942707, 3316170429, 3160921264, 
         470989234, 1563919524, 3035739372, 1960066357, 3966560962, 
         1964056363, 1258651075, 2843200004, 3194869753, 2940075359, 
         2234437073, 1895322051, 1430502931, 3215154028, 3395557226, 
         3287361098, 171942783, 2974801040, 2047015853, 78862853, 
         2146208409, 1135630042, 775792239, 4124412037, 604978104, 
         3390851586, 1243895099, 694697636, 3299709690, 922721382, 
         2624751889, 2732753169, 81704110, 1414006858, 3859230089, 
         2497403705, 963337453, 369971128, 1629966789, 1250044326, 
         778138599, 3001133417, 3299849905, 2463794957, 3864489425, 
         2566369666, 299155704, 3451059852, 466750088, 3465122531, 
         1824066458, 1050532720, 1963934708, 4103503183, 2441877636, 
         911013783, 2842246255, 2314445368, 3265429347, 717468351, 
         4024587002, 2518212168, 4248908539, 4025343155, 3651533310, 
         1004731977, 2531562963, 1764121404, 576716661, 2472188663, 
         4278157521, 3106425148, 2134576174, 3380123524, 1304635820, 
         4020869538, 3057873095, 3382961612, 1564292600, 2010678710, 
         2985313704, 4117748195, 2162557038, 3905384273, 1706481337, 
         1494221031, 643949419, 1913390457, 1477732532, 2040157491, 
         824173773, 1880615516, 3747072697, 3319848937, 1810351599, 
         2603038818, 2296360906, 721786166, 3506658302, 4038734225, 
         1774112557, 3285521526, 938992139, 3156590516, 3480735111, 
         2156380321, 3028746842, 92735057, 33584681, 2223914520, 
         1075942165, 2920976039, 3962325860, 1533625263, 1492148644, 
         3986590683, 3067588085, 2925051511, 1184126607, 4212427234, 
         2450928951, 1999119482, 3394788187, 2737529757, 2984774840, 
         3448059897, 3128699386, 1975398922, 2846375985, 826114017, 
         3356979508, 2382506506, 1614748794, 373592866, 2664569841, 
         1031193670, 2203791915, 2092628224, 1751441584, 420441309, 
         1426622376, 4284927640, 3151583810, 3200587042, 168069116, 
         918859903, 3972783125, 2658273187, 275368373, 1866859789, 
         1482066000, 1128797075, 146314832, 1924281543, 8602533, 
         1483910265, 3318375570, 3494035993, 28911833, 342115326, 
         499231719, 1856145367, 2769686295, 1620568228, 4066431953, 
         2399649779, 2582681826, 3727879513, 1692314045, 1134678525, 
         51360183, 548216735, 2848851381, 3169053310, 3210146737, 
         939623003, 2910769843, 3036158560, 3670370643, 281345745, 
         3457291064, 1400489585, 1452511547, 4256353234, 3116168528, 
         2178491565, 3868745533, 2354694235, 3938174501, 3624991558, 
         1956857071, 1376695018, 4097326732, 147132805, 4197167413, 
         2640300818, 224990094, 3796034816, 2493909859, 743113278, 
         2011438013, 3988664537, 3371682632, 928294670, 226711687, 
         3716613820, 4044051052, 33542547, 3005135158, 2116403006, 
         3400864678, 812136484, 2505470972, 2697477206, 415520770, 
         1697618227, 3791626571, 650531879, 2709395663, 1373821699, 
         2380674998, 3875441313, 3524283339, 3576978410, 3956445246, 
         2311348908, 2041704406, 2144695599, 3420194882, 381861280, 
         1144944069, 2232740530, 88942372, 599581355, 655976877, 
         2198067762, 4138101207, 3450733293, 1712603215, 843661026, 
         1065716796, 2583147276, 3540829224, 513965529, 935344055, 
         3794923358, 193753936, 3101626906, 4143381485, 2313497270, 
         2483059359, 370958375, 189848056, 2035128026, 4023541486, 
         1092735327, 2940987148, 2172430583, 2717287579 ]
      </state>
      <set_pos>108</set_pos>
   </prng>
   <output prefix='simulation'>
      <properties shape='(9)' stride='100'>
       [ step, time{picosecond}, potential{kelvin}, kinetic_cv{kelvin}, conserved{kelvin}, 
         temperature{kelvin}, pressure_cv{bar}, volume{angstrom3}, density{g/cm3} ]
      </properties>
      <trajectory filename='pos' stride='100' cell_units='angstrom'>positions{angstrom}</trajectory>
      <trajectory filename='for' stride='100' cell_units='angstrom'>forces</trajectory>
      <checkpoint stride='100'>417</checkpoint>
   </output>
   <step>41600</step>
   <total_steps>200000</total_steps>
   <ffsocket mode='unix' name='dmff'>
      <address>unix_dmff</address>
   </ffsocket>
   <system>
      <forces>
         <force forcefield='dmff'>
         </force>
      </forces>
      <ensemble>
         <temperature>  9.44185952e-04</temperature>
         <pressure>  3.39882738e-09</pressure>
         <eens>  1.11983604e+01</eens>
         <hamiltonian_weights shape='(1)'> [   1.00000000e+00 ] </hamiltonian_weights>
         <time>  1.71980112e+06</time>
      </ensemble>
      <motion mode='dynamics'>
         <dynamics mode='npt'>
            <thermostat mode='langevin'>
               <ethermo> -1.06144915e+01</ethermo>
               <tau>  4.13413730e+02</tau>
            </thermostat>
            <barostat mode='isotropic'>
               <thermostat mode='langevin'>
                  <ethermo> -1.61172222e-02</ethermo>
                  <tau>  4.13413730e+03</tau>
               </thermostat>
               <tau>  4.13413730e+03</tau>
               <p shape='(1)'> [   3.66859810e+02 ] </p>
            </barostat>
            <timestep>  4.13413730e+01</timestep>
            <nmts shape='(1)'> [ 1 ] </nmts>
         </dynamics>
      </motion>
      <beads natoms='1300' nbeads='1'>
         <q shape='(1, 3900)'>
          [   2.16543158e+01,   1.38257412e+01,   2.92077914e+01,   2.11963436e+01,   1.20771961e+01, 
              2.82538783e+01,   2.02053481e+01,   1.50836086e+01,   2.87232432e+01,   2.16276083e+01, 
              1.34978360e+01,   3.12719794e+01,   2.42486847e+01,   1.47762039e+01,   2.83458639e+01, 
              2.56102410e+01,   1.31780389e+01,   2.80473746e+01,   2.51001410e+01,   1.60866927e+01, 
              2.98212109e+01,   2.38418730e+01,   1.64371388e+01,   2.58804209e+01,   2.24996312e+01, 
              1.80455077e+01,   2.63838079e+01,   2.28835173e+01,   1.52971734e+01,   2.45984085e+01, 
              2.63178540e+01,   1.72515239e+01,   2.47124190e+01,   2.59505384e+01,   1.82730885e+01, 
              2.29602058e+01,   2.76078084e+01,   1.58351146e+01,   2.42367688e+01,   2.76758778e+01, 
              1.89548085e+01,   2.66931312e+01,   2.83987963e+01,   1.76882199e+01,   2.81232896e+01, 
              2.61926255e+01,   2.00183935e+01,   2.76221160e+01,   2.95048184e+01,   2.06368111e+01, 
              2.53706769e+01,   3.09691682e+01,   1.94147630e+01,   2.43536659e+01,   3.05049280e+01, 
              2.16476141e+01,   2.68340403e+01,   2.85375060e+01,   2.27373648e+01,   2.35765741e+01, 
              2.78453885e+01,   2.43313980e+01,   2.46521809e+01,   2.70597034e+01,   2.18634634e+01, 
              2.24720995e+01,   3.07048236e+01,   2.36680900e+01,   2.19735516e+01,   3.23142551e+01, 
              2.41467818e+01,   2.33211997e+01,   3.02327360e+01,   2.53938088e+01,   2.11104941e+01, 
              3.15443837e+01,   2.24031124e+01,   2.04867532e+01,   4.62928172e+01,   2.60706452e+01, 
              4.79233300e+01,   4.78178130e+01,   2.46866711e+01,   4.82208843e+01,   4.53885404e+01, 
              2.55523871e+01,   4.62291075e+01,   4.49146515e+01,   2.59667843e+01,   4.95168762e+01, 
              4.75707934e+01,   2.87297093e+01,   4.78075397e+01,   4.78241945e+01,   2.96480808e+01, 
              4.97195451e+01,   4.62174946e+01,   2.99014881e+01,   4.69225223e+01,   4.99725876e+01, 
              2.89798480e+01,   4.63356563e+01,   4.95928663e+01,   2.80054135e+01,   4.45767487e+01, 
              5.14559181e+01,   2.78271096e+01,   4.72605891e+01,   5.08771949e+01,   3.16633496e+01, 
              4.57378153e+01,   4.95255964e+01,   3.25979067e+01,   4.45444308e+01,   5.27624035e+01, 
              3.17044724e+01,   4.47987918e+01,   5.11591858e+01,   3.35630761e+01,   4.79476106e+01, 
              5.25358054e+01,   3.28189196e+01,   4.93310058e+01,   4.94843754e+01,   3.37488690e+01, 
              4.91596080e+01,   5.19678333e+01,   3.62879960e+01,   4.71254560e+01,   5.35412265e+01, 
              3.61224181e+01,   4.58683515e+01,   5.27103492e+01,   3.73504219e+01,   4.88280497e+01, 
              4.98497817e+01,   3.78601273e+01,   4.59566239e+01,   4.87384947e+01,   3.87972404e+01, 
              4.73740952e+01,   4.83897859e+01,   3.68094227e+01,   4.47018515e+01,   5.07085871e+01, 
              4.00904323e+01,   4.43260092e+01,   5.23107047e+01,   3.96899105e+01,   4.29798591e+01, 
              5.12655450e+01,   4.16287485e+01,   4.57497482e+01,   4.91986672e+01,   4.10506172e+01, 
              4.31050671e+01,   3.74996015e+01,   1.28908948e+01,   3.82968279e+01,   3.81371790e+01, 
              1.25149106e+01,   4.02339477e+01,   3.90671706e+01,   1.23326665e+01,   3.71563058e+01, 
              3.59112719e+01,   1.17710536e+01,   3.76077274e+01,   3.66607458e+01,   1.56325402e+01, 
              3.82645672e+01,   3.82583740e+01,   1.68802577e+01,   3.88636625e+01,   3.50666489e+01, 
              1.57262899e+01,   3.95766578e+01,   3.57855018e+01,   1.66426851e+01,   3.56815394e+01, 
              3.38460527e+01,   1.61704416e+01,   3.52485679e+01,   3.69765020e+01,   1.58237539e+01, 
              3.42484298e+01,   3.59722806e+01,   1.95343562e+01,   3.54731245e+01,   3.79118261e+01, 
              2.01146053e+01,   3.57801987e+01,   3.48846192e+01,   2.04754169e+01,   3.70610304e+01, 
              3.48201566e+01,   2.02978668e+01,   3.29288158e+01,   3.26832803e+01,   2.01333352e+01, 
              3.29867516e+01,   3.57365156e+01,   1.91156973e+01,   3.14887560e+01,   3.54309065e+01, 
              2.29223482e+01,   3.21677664e+01,   3.74782562e+01,   2.33876817e+01,   3.21941313e+01, 
              3.46588131e+01,   2.41851377e+01,   3.36497956e+01,   3.45390541e+01,   2.37275169e+01, 
              2.95911389e+01,   3.25276578e+01,   2.32155379e+01,   2.94753783e+01,   3.53367314e+01, 
              2.25770853e+01,   2.81186693e+01,   3.52234122e+01,   2.64487968e+01,   2.91488409e+01, 
              3.39049122e+01,   2.74480441e+01,   2.79165964e+01,   3.71136263e+01,   2.68989665e+01, 
              2.85853649e+01,   3.51534527e+01,   2.75082156e+01,   3.10259686e+01,   3.69652360e+01, 
              1.79741595e+01,   1.54736883e+01,   3.62755377e+01,   1.65004885e+01,   1.68608320e+01, 
              3.88689752e+01,   1.87891366e+01,   1.59932590e+01,   3.72167160e+01,   1.73979934e+01, 
              1.35613119e+01,   3.49829006e+01,   2.00920123e+01,   1.57761059e+01,   3.59427276e+01, 
              2.17124934e+01,   1.48651665e+01,   3.48502125e+01,   2.02020457e+01,   1.77996362e+01, 
              3.25181819e+01,   1.93810923e+01,   1.45850938e+01,   3.17712383e+01,   1.77105022e+01, 
              1.55774859e+01,   3.28616448e+01,   1.87283910e+01,   1.26595277e+01,   3.04428099e+01, 
              2.15936466e+01,   1.45459545e+01,   3.10115423e+01,   2.31491733e+01,   1.33297805e+01, 
              2.99703189e+01,   2.24495486e+01,   1.62869267e+01,   2.80630237e+01,   2.05395526e+01, 
              1.32960884e+01,   2.75359619e+01,   1.86819832e+01,   1.40993145e+01,   2.84415459e+01, 
              1.97748817e+01,   1.12985337e+01,   2.56902331e+01,   2.22485517e+01,   1.31767302e+01, 
              2.51336373e+01,   2.27810462e+01,   1.51516806e+01,   2.40736997e+01,   2.12904033e+01, 
              1.21505631e+01,   2.64502538e+01,   2.46475449e+01,   1.18265488e+01,   2.72428236e+01, 
              2.43665802e+01,   9.86288981e+00,   2.80451232e+01,   2.56895649e+01,   1.25937735e+01, 
              2.44539846e+01,   2.67126450e+01,   1.16629404e+01,   2.51494585e+01,   2.84624228e+01, 
              1.09385007e+01,   2.36466942e+01,   2.68032771e+01,   1.36191592e+01,   2.27206210e+01, 
              2.61993291e+01,   1.07313108e+01,   5.59176498e+01,   3.42497514e+01,   3.89709671e+01, 
              5.67916053e+01,   3.44933038e+01,   3.71465284e+01,   5.61368956e+01,   3.21476696e+01, 
              3.94081294e+01,   5.71730778e+01,   3.51428214e+01,   4.03658144e+01,   5.32403472e+01, 
              3.51960164e+01,   3.89544663e+01,   5.32725233e+01,   3.72422438e+01,   3.84025152e+01, 
              5.24531173e+01,   3.51542354e+01,   4.08015654e+01,   5.15135186e+01,   3.37438568e+01, 
              3.71860262e+01,   5.14438676e+01,   3.17686366e+01,   3.78332625e+01,   5.23341613e+01, 
              3.39279703e+01,   3.53376793e+01,   4.89518545e+01,   3.50920693e+01,   3.71620716e+01, 
              4.80453632e+01,   3.52661184e+01,   3.91012409e+01,   4.76119787e+01,   3.38815520e+01, 
              3.61290741e+01,   4.86541009e+01,   3.76074891e+01,   3.59342848e+01,   4.94157950e+01, 
              3.77413957e+01,   3.39507326e+01,   4.98372371e+01,   3.90244413e+01,   3.69212481e+01, 
              4.59912826e+01,   3.82568788e+01,   3.59744574e+01,   4.53531653e+01,   3.76987229e+01, 
              3.78038822e+01,   4.49086924e+01,   3.70772660e+01,   3.46645025e+01,   4.55455877e+01, 
              4.11946297e+01,   3.58627975e+01,   4.36249412e+01,   4.16856518e+01,   3.58060410e+01, 
              4.63052974e+01,   4.17689854e+01,   3.40144760e+01,   4.70391993e+01,   4.23032420e+01, 
              3.80008265e+01,   4.67238561e+01,   4.43651395e+01,   3.80429863e+01,   4.90249607e+01, 
              4.17044311e+01,   3.80201142e+01,   4.63917049e+01,   4.18016558e+01,   3.98738194e+01, 
              5.30707119e+01,   2.60608214e+01,   5.70542680e+01,   5.30727697e+01,   2.54033111e+01, 
              5.49337554e+01,   5.45762799e+01,   2.49633144e+01,   5.80588171e+01,   5.36418748e+01, 
              2.80757523e+01,   5.72666220e+01,   5.03396203e+01,   2.58663066e+01,   5.80262871e+01, 
              5.01343391e+01,   2.65397532e+01,   5.99290970e+01,   4.95814803e+01,   2.39395839e+01, 
              5.80734010e+01,   4.86096572e+01,   2.76619086e+01,   5.64962122e+01,   4.86912553e+01, 
              2.72453745e+01,   5.45244525e+01,   4.93090734e+01,   2.96453267e+01,   5.66948688e+01, 
              4.59455519e+01,   2.76253802e+01,   5.73483131e+01,   4.57783693e+01,   2.83597239e+01, 
              5.92595285e+01,   4.50471495e+01,   2.57123786e+01,   5.76761609e+01,   4.40828197e+01, 
              2.89649950e+01,   5.57250176e+01,   4.40152969e+01,   2.82757580e+01,   5.38432019e+01, 
              4.47701001e+01,   3.09743895e+01,   5.54147575e+01,   4.13648839e+01,   2.90276355e+01, 
              5.68223884e+01,   4.10486887e+01,   3.07570898e+01,   5.80256934e+01,   4.09980408e+01, 
              2.73784398e+01,   5.81646009e+01,   3.92995137e+01,   2.88432687e+01,   5.48493794e+01, 
              3.88394029e+01,   2.67517385e+01,   5.44543308e+01,   3.99606934e+01,   2.96899773e+01, 
              5.31216894e+01,   3.69098413e+01,   3.00663600e+01,   5.56681515e+01,   3.55778010e+01, 
              2.90528119e+01,   5.68633267e+01,   3.58207863e+01,   3.05980234e+01,   5.40715879e+01, 
              3.73293792e+01,   3.18298853e+01,   5.65353411e+01,   3.79946652e+01,   4.78832744e+01, 
              1.65292640e+01,   3.89515396e+01,   4.89500412e+01,   1.80745423e+01,   3.60391299e+01, 
              4.85293194e+01,   1.66060432e+01,   3.87313235e+01,   4.82350893e+01,   1.45981269e+01, 
              3.84122509e+01,   4.50922647e+01,   1.68382625e+01,   4.03712964e+01,   4.46073267e+01, 
              1.62570475e+01,   3.71416129e+01,   4.40467250e+01,   1.56928915e+01,   3.80783625e+01, 
              4.40048842e+01,   1.94771102e+01,   3.63528942e+01,   4.45168603e+01,   2.05168661e+01, 
              3.94457042e+01,   4.46480175e+01,   2.08673105e+01,   3.81670035e+01,   4.11749597e+01, 
              1.95711264e+01,   4.02265081e+01,   4.04298096e+01,   1.92673552e+01,   3.71357560e+01, 
              4.04576584e+01,   1.77913939e+01,   3.69063484e+01,   4.01180391e+01,   2.20585254e+01, 
              3.52291635e+01,   4.09982937e+01,   2.25008459e+01,   3.82061871e+01,   4.06842699e+01, 
              2.35292622e+01,   3.68101489e+01,   3.71571926e+01,   2.21328567e+01,   3.59455409e+01, 
              3.64842599e+01,   2.03505611e+01,   3.56001896e+01,   3.65029854e+01,   2.38090148e+01, 
              3.94882451e+01,   3.59924441e+01,   2.21707587e+01,   4.05154424e+01,   3.66970677e+01, 
              2.37836601e+01,   4.04039101e+01,   3.67689359e+01,   2.03601029e+01,   3.96944013e+01, 
              3.31344227e+01,   2.22340296e+01,   3.86726730e+01,   3.25176953e+01,   2.04855829e+01, 
              3.88490039e+01,   3.21488220e+01,   2.39313763e+01,   4.16692699e+01,   3.25511946e+01, 
              2.20674837e+01,   5.29002481e+01,   1.71988944e+01,   1.27132784e+01,   5.45519841e+01, 
              1.79603934e+01,   1.18425794e+01,   5.37227596e+01,   1.56783163e+01,   1.38628727e+01, 
              5.19454194e+01,   1.84146207e+01,   1.40197370e+01,   5.10171141e+01,   1.64498615e+01, 
              1.04845840e+01,   5.08472138e+01,   1.79897860e+01,   9.20538979e+00,   4.90849957e+01, 
              1.58636137e+01,   1.11425846e+01,   5.21527969e+01,   1.41899374e+01,   8.79751874e+00, 
              5.23173516e+01,   1.23901173e+01,   9.96159683e+00,   5.41262276e+01,   1.45246344e+01, 
              8.03445316e+00,   5.06400631e+01,   1.36312228e+01,   6.54734307e+00,   5.07770143e+01, 
              1.50001778e+01,   5.08902408e+00,   4.85853381e+01,   1.37983074e+01,   7.01551132e+00, 
              5.09737070e+01,   1.10426400e+01,   5.54928351e+00,   5.16885883e+01,   1.01533798e+01, 
              7.30331527e+00,   5.26276312e+01,   1.08639519e+01,   4.22485201e+00,   4.87076882e+01, 
              9.74743441e+00,   4.47918002e+00,   4.82978286e+01,   1.06684317e+01,   2.66772027e+00, 
              4.70898585e+01,   1.03240367e+01,   5.65347167e+00,   4.90923748e+01,   6.91618117e+00, 
              4.25294069e+00,   4.95136486e+01,   6.34487433e+00,   6.16368911e+00,   5.08400149e+01, 
              6.54396536e+00,   3.16971129e+00,   4.68141169e+01,   5.32491821e+00,   3.00026294e+00, 
              4.49619422e+01,   4.98048952e+00,   4.15565020e+00,   4.73715495e+01,   3.39728085e+00, 
              2.45899929e+00,   4.63458630e+01,   6.24227068e+00,   1.19868216e+00,   3.35466184e+01, 
              3.04308629e+01,   4.18898957e+01,   3.47230871e+01,   3.18086524e+01,   4.29707764e+01, 
              3.47974121e+01,   2.88815547e+01,   4.12158556e+01,   3.20721650e+01,   2.95472786e+01, 
              4.30249312e+01,   3.22650851e+01,   3.18111720e+01,   3.96335039e+01,   3.07953951e+01, 
              3.07238730e+01,   3.88441750e+01,   3.36975554e+01,   3.20892508e+01,   3.80501506e+01, 
              3.14191818e+01,   3.43820429e+01,   4.06887557e+01,   3.29944568e+01,   3.53083293e+01, 
              4.17024881e+01,   3.01311363e+01,   3.41802631e+01,   4.22492374e+01,   3.05606566e+01, 
              3.62442481e+01,   3.86807113e+01,   2.87401457e+01,   3.55344629e+01,   3.75973454e+01, 
              3.18902286e+01,   3.63349472e+01,   3.72154831e+01,   2.98068862e+01,   3.87439284e+01, 
              3.98910687e+01,   3.15242264e+01,   3.93579571e+01,   4.08269831e+01,   2.85220818e+01, 
              3.83647804e+01,   4.14820375e+01,   2.86926029e+01,   4.08251670e+01,   3.81357834e+01, 
              2.69613115e+01,   4.00068002e+01,   3.72509956e+01,   3.01049601e+01,   4.12793963e+01, 
              3.66836533e+01,   2.79618239e+01,   4.30936499e+01,   3.96118368e+01,   2.95270893e+01, 
              4.34285655e+01,   4.09805264e+01,   2.63566493e+01,   4.24625210e+01,   4.07104451e+01, 
              2.71074830e+01,   4.53367220e+01,   3.80179880e+01,   2.70313032e+01,   4.70449212e+01, 
              3.91555934e+01,   2.52613664e+01,   4.50242354e+01,   3.72579077e+01,   2.85582689e+01, 
              4.57553345e+01,   3.64762559e+01,   2.19113974e+01,   2.78333883e+01,   2.40764887e+01, 
              2.00471050e+01,   2.87120918e+01,   2.44414573e+01,   2.15283171e+01,   2.67826972e+01, 
              2.23994043e+01,   2.34046049e+01,   2.92697727e+01,   2.40959821e+01,   2.24048299e+01, 
              2.59640468e+01,   2.61810654e+01,   2.32111117e+01,   2.68572681e+01,   2.78464017e+01, 
              2.40941130e+01,   2.49113313e+01,   2.55665141e+01,   2.02048645e+01,   2.40967877e+01, 
              2.68288475e+01,   1.87626892e+01,   2.52833642e+01,   2.78177918e+01,   2.08050046e+01, 
              2.27122545e+01,   2.81016607e+01,   1.89597348e+01,   2.27968807e+01,   2.44895338e+01, 
              2.05248878e+01,   2.19794009e+01,   2.32277686e+01,   1.80947297e+01,   2.42162170e+01, 
              2.32980840e+01,   1.69652417e+01,   2.09442871e+01,   2.51564251e+01,   1.57313477e+01, 
              2.17178596e+01,   2.65912915e+01,   1.77798931e+01,   1.92663387e+01,   2.60920778e+01, 
              1.56406504e+01,   1.99316309e+01,   2.27411756e+01,   1.71087129e+01,   1.98714607e+01, 
              2.13910304e+01,   1.42118589e+01,   2.12887430e+01,   2.21175678e+01,   1.39958906e+01, 
              1.74602808e+01,   2.29774341e+01,   1.31598294e+01,   1.66221023e+01,   2.12113461e+01, 
              1.23328337e+01,   1.80911149e+01,   2.40775639e+01,   1.52328334e+01,   1.53457034e+01, 
              2.44179883e+01,   1.37753981e+01,   1.39678443e+01,   2.50183082e+01,   1.63673982e+01, 
              1.59631641e+01,   2.59994542e+01,   1.64375610e+01,   1.44019161e+01,   2.31448638e+01, 
              2.15999621e+01,   1.95290237e+01,   5.10888428e+01,   1.96498171e+01,   2.00234210e+01, 
              5.15965305e+01,   2.22570110e+01,   2.07133611e+01,   4.94531291e+01,   2.28419450e+01, 
              1.99886728e+01,   5.26622570e+01,   2.15709654e+01,   1.66502190e+01,   5.06179976e+01, 
              2.02840815e+01,   1.63776242e+01,   4.90052686e+01,   2.09968909e+01,   1.57307201e+01, 
              5.22809015e+01,   2.41030444e+01,   1.57005100e+01,   4.98587611e+01,   2.53721297e+01, 
              1.60668363e+01,   5.14408492e+01,   2.49477370e+01,   1.64681855e+01,   4.81779181e+01, 
              2.41626729e+01,   1.29072639e+01,   4.92324471e+01,   2.27166923e+01,   1.22051962e+01, 
              4.78440252e+01,   2.39374425e+01,   1.19160604e+01,   5.10819756e+01,   2.66708301e+01, 
              1.22019218e+01,   4.80669894e+01,   2.82795982e+01,   1.24824198e+01,   4.94110154e+01, 
              2.69173358e+01,   1.34411328e+01,   4.64546089e+01,   2.71458767e+01,   9.36205471e+00, 
              4.72584438e+01,   2.65131921e+01,   9.42435355e+00,   4.53659787e+01,   2.58136528e+01, 
              8.13438072e+00,   4.83173284e+01,   2.98333289e+01,   8.55168926e+00,   4.75327806e+01, 
              3.06932880e+01,   9.03618932e+00,   4.94812944e+01,   3.09736887e+01,   9.72734978e+00, 
              4.61319852e+01,   3.06317229e+01,   5.95531450e+00,   4.69010365e+01,   3.25044661e+01, 
              5.51099982e+00,   4.72083602e+01,   3.00691050e+01,   5.64676646e+00,   4.48757361e+01, 
              2.94547138e+01,   4.63662990e+00,   4.81346415e+01,   1.55579938e+01,   3.88117215e+01, 
              2.38643482e+01,   1.61633548e+01,   4.03876775e+01,   2.51318272e+01,   1.39271231e+01, 
              3.81823529e+01,   2.46888584e+01,   1.51113271e+01,   3.96008538e+01,   2.20573700e+01, 
              1.74267822e+01,   3.65414645e+01,   2.32887274e+01,   1.77944062e+01,   3.54009492e+01, 
              2.50214631e+01,   1.92726804e+01,   3.70276202e+01,   2.24245217e+01,   1.60528707e+01, 
              3.49201710e+01,   2.13265229e+01,   1.56677852e+01,   3.60926953e+01,   1.96855909e+01, 
              1.41039900e+01,   3.45939550e+01,   2.18825403e+01,   1.72307593e+01,   3.23379066e+01, 
              2.07757323e+01,   1.68853567e+01,   3.13917929e+01,   2.25331695e+01,   1.93678976e+01, 
              3.25131720e+01,   2.04758877e+01,   1.61278218e+01,   3.08915162e+01,   1.84570138e+01, 
              1.66919317e+01,   3.17607543e+01,   1.66073269e+01,   1.40459824e+01,   3.08973887e+01, 
              1.85048218e+01,   1.71283834e+01,   2.81572063e+01,   1.81456271e+01,   1.64192574e+01, 
              2.69196583e+01,   1.96710096e+01,   1.92635510e+01,   2.82212526e+01,   1.81580151e+01, 
              1.62929970e+01,   2.67732529e+01,   1.56965815e+01,   1.65026915e+01,   2.82197669e+01, 
              1.41949250e+01,   1.42559557e+01,   2.63811665e+01,   1.57484789e+01,   1.75716472e+01, 
              2.42672574e+01,   1.52335237e+01,   1.71720062e+01,   2.31122951e+01,   1.70039596e+01, 
              1.96907092e+01,   2.43553569e+01,   1.50727977e+01,   1.68290875e+01,   2.32894123e+01, 
              1.36618746e+01,   4.39859955e+01,   3.61834821e+01,   4.89390416e+01,   4.40348313e+01, 