<simulation verbosity='high'>
   <prng>
      <seed>12345</seed>
      <state shape='(624)'>
       [ 2853269929, 2840688783, 1254020095, 873957868, 978047813, 
         1753887961, 361395400, 340400110, 1357818588, 1622506733, 
         1659316117, 374044738, 3832860444, 2679705631, 1758789185, 
         443178469, 2642973926, 2375331165, 1589585629, 2129895170, 
         1676537265, 3440253279, 230368130, 3765137409, 2394014832, 
         4171484895, 2826252876, 1681285951, 215718879, 190764911, 
         2440174576, 849494584, 1986568308, 583077231, 1334114766, 
         3577307082, 3619672734, 190730445, 1928902058, 3341313587, 
         2221252187, 752736722, 1010416754, 958382825, 851810063, 
         429494377, 2828663124, 3574252803, 3748363969, 772328315, 
         3417080814, 2135709879, 2796308465, 334479599, 2398250320, 
         678285158, 1027952428, 2012158954, 1994105863, 1558706477, 
         3097326738, 357505987, 586695693, 2793992208, 394749501, 
         3858183083, 2832541334, 666826456, 151824726, 52948377, 
         3936171216, 1456310523, 78779322, 1643769628, 3380892842, 
         2298203955, 2342543113, 2638574972, 1133047662, 3442260717, 
         3687644546, 3235891085, 518903476, 897091440, 1776917999, 
         3370176180, 1795727131, 1938294059, 839164382, 1159154780, 
         897336740, 1162634719, 632431639, 4185039498, 2718150007, 
         1249245305, 1384243434, 1155477398, 842455612, 1474705513, 
         3289396827, 3234324976, 2598942133, 1085657668, 2699479816, 
         2383581656, 3987013583, 1896099360, 282310883, 2208249555, 
         537034141, 22503326, 474055838, 3425492767, 1427428408, 
         1017325123, 3641666955, 4291373532, 3412676986, 586562514, 
         184563691, 2148323727, 4152109492, 2518241668, 2608540158, 
         3450549062, 2160017441, 3797794357, 4000747543, 30996997, 
         726885650, 4013491681, 560831971, 2249746285, 3662004246, 
         2769412437, 799619386, 1983038386, 3948970184, 1569961241, 
         56662315, 665526917, 1881294279, 1198209137, 679460585, 
         2858054999, 3865367775, 1672165788, 1928387993, 331003414, 
         3060316399, 1651180676, 3787828722, 3944641096, 2519375928, 
         2329155503, 1453285243, 2547344760, 2998018850, 1616081121, 
         3809744141, 1827655472, 2445085519, 215561509, 1160532089, 
         32205899, 1819455051, 4275545998, 699508451, 2020398138, 
         2439135667, 3286730698, 4050604479, 656043962, 574701808, 
         1266711742, 3490914942, 3773644162, 292100732, 3208810472, 
         689412455, 2311307784, 3188930838, 852335882, 874828845, 
         4200676884, 2126969058, 3999830152, 3686288688, 3968875821, 
         283151568, 1990931852, 3152127226, 1828376656, 3906685421, 
         1242534634, 3069919918, 863991976, 1737934728, 3598792972, 
         2356464316, 575705671, 1955640940, 331667644, 4228987171, 
         2614445493, 3109361287, 2913923465, 2000332732, 1719510794, 
         1301353850, 1828482169, 753941460, 2328173094, 2053263564, 
         2158098585, 1807305884, 2175204042, 1405793856, 3490333988, 
         3282839615, 1514640175, 1284254465, 122494061, 2339726024, 
         4198322370, 4072896803, 3337584959, 2340406175, 1813528243, 
         3622627118, 1643821342, 630193348, 3077390133, 3134132727, 
         2516428863, 1510159421, 3612696544, 137825969, 2565743975, 
         1443963960, 4107105345, 1043569567, 4005809937, 2863955967, 
         201670947, 1608379093, 2139296279, 3604066866, 3701052829, 
         1607263698, 118860932, 920927969, 3587991431, 3194989238, 
         4123908330, 484946210, 2536982370, 3698073492, 3428081039, 
         3324704715, 4105491775, 2205551737, 1877885877, 2319292768, 
         2997946007, 1588854664, 1631679992, 1930112942, 1557683759, 
         4074941094, 3162457056, 3859512147, 1515496936, 3422511963, 
         864373874, 1994021006, 186526456, 1871492173, 518885627, 
         2522275989, 3620127186, 3663293773, 1695818914, 1236253, 
         3589348786, 3478434279, 721293341, 939326977, 4102902132, 
         40298278, 1245229198, 3131645726, 2562899413, 3190816098, 
         3763081981, 75816406, 3774898281, 1649777208, 3586146660, 
         4264026919, 891258631, 4277269027, 3726467472, 2025935373, 
         2522424604, 4265313197, 79566926, 2663573269, 3306073474, 
         4150227985, 4145055566, 4088636568, 2929134634, 113963746, 
         874543245, 853372172, 194395463, 2596595587, 1775579702, 
         717030699, 114420014, 4186082652, 1455850314, 1448806687, 
         1867774580, 1502543331, 3685895571, 3207769822, 1324254712, 
         1665965310, 171663308, 2670095768, 3484000953, 756224936, 
         1245178544, 2558069925, 1600783691, 3630899970, 709226902, 
         691520650, 889423360, 1170696101, 3742488463, 2147580899, 
         3062782281, 2654908457, 1179719789, 2241686588, 3597916613, 
         694453952, 745047881, 1241263205, 1443474945, 1716846617, 
         1817943750, 1333386283, 1550086834, 2770690501, 2254077265, 
         3360025353, 115542267, 4162905211, 4085525177, 1250213463, 
         604227219, 1728472832, 2309662316, 3978659113, 3464363248, 
         825691169, 3384582439, 2947852729, 2305116756, 519801648, 
         1727597156, 3194584087, 121922951, 729503347, 451189959, 
         2684302902, 4278621803, 2945604605, 3864993836, 2277230014, 
         4027793219, 1652521398, 2934393300, 2708057261, 992781618, 
         3850788120, 456907352, 580658187, 308433456, 1945933587, 
         1280028334, 1362917042, 2431269906, 778775081, 708707826, 
         86498953, 2198276791, 2662100146, 1270496529, 940285017, 
         710254890, 161449889, 438188889, 3668772674, 1683903996, 
         3668305442, 2178201449, 870922331, 1423482171, 3759753874, 
         4117881440, 972979346, 3590223536, 2378392464, 1274728980, 
         3229892100, 275607966, 1271471722, 992752825, 250239109, 
         2336857738, 1631188784, 2892363054, 2588255755, 3570418180, 
         219519159, 3885683643, 1226619167, 3665019318, 4096200548, 
         409348390, 1627832233, 1030085067, 1731816428, 230096428, 
         3712089227, 3840356428, 3122896282, 2504014996, 1788752802, 
         1763516431, 2676574693, 2364412019, 1397522441, 3019766858, 
         3863051288, 2720060691, 3263319770, 3611944776, 1379444008, 
         2271372959, 701707587, 3769321862, 1700915226, 545422732, 
         1924277630, 2496255068, 3752809587, 1006795611, 3718663810, 
         38230157, 3688680840, 1307497883, 2673787021, 2194661743, 
         3278275979, 3095058995, 3721758198, 2326581365, 2911776008, 
         3250696385, 43292549, 3387650180, 3336100685, 3150730168, 
         4207000144, 3260668984, 1821188912, 1377379485, 2929254633, 
         528618612, 81816025, 1207031799, 606437814, 320688160, 
         172383835, 3500385024, 2808289899, 2043175748, 3105595243, 
         3174809052, 2115075864, 3902577190, 102683103, 2521902199, 
         2630501557, 2610621857, 2763270842, 1612584246, 2968472318, 
         3091947860, 1814124413, 3058138357, 1841615795, 2381806033, 
         2784718017, 2542618061, 2321710190, 2946579605, 891762344, 
         142907634, 1558755632, 650766265, 1276487293, 3940557503, 
         1967633610, 2494369486, 3462200973, 2293180428, 3588711508, 
         3433343099, 1199154523, 710067329, 468217661, 813822459, 
         2285859477, 36841274, 2307829143, 3843514084, 3919546982, 
         3261210032, 3682522584, 2647344461, 3755102341, 3563288591, 
         220743657, 344652908, 2466564391, 1294226355, 504428090, 
         1388118919, 4260206306, 2086833634, 3840317290, 163251069, 
         3384701300, 1058566807, 3182804887, 3789265259, 184750874, 
         1797183519, 2748698188, 1809969026, 2039575032, 3538167493, 
         3612989505, 4206988511, 4045785293, 1903323470, 1435764579, 
         3830587424, 3628756119, 2661221354, 2985627023, 334481821, 
         764735903, 1252132224, 1013922732, 3272340789, 2021914906, 
         4034461239, 1799152029, 199307771, 2401707157, 2618124091, 
         1009062644, 3703430729, 3074523308, 539287318, 3547299221, 
         2104167570, 1709549009, 4150193376, 1197867791, 4217705376, 
         1912725849, 3108756543, 2624898891, 2268516536, 842524785, 
         3044999013, 200859222, 2622124123, 2336888567, 1032448985, 
         1658501133, 2134827861, 3452928735, 2416460219, 4231508092, 
         3925258358, 1993573057, 705625383, 3691958230, 919859185, 
         3589412707, 1386920035, 1189539470, 3999709131, 2979817347, 
         119425751, 618734917, 3276947585, 2767365754, 2416727524, 
         2891093122, 184906979, 1357901713, 2637987513 ]
      </state>
      <set_pos>308</set_pos>
   </prng>
   <output prefix='simulation'>
      <properties shape='(4)' stride='50'> [ step, time{picosecond}, temperature{kelvin}, potential{kiloj/mol} ] </properties>
      <trajectory filename='pos' stride='200' cell_units='angstrom'>positions{angstrom}</trajectory>
      <checkpoint stride='10'>12980</checkpoint>
   </output>
   <step>129790</step>
   <total_steps>200000</total_steps>
   <ffsocket mode='unix' name='dmff'>
      <address>unix_dmff_484332</address>
   </ffsocket>
   <system>
      <forces>
         <force forcefield='dmff'>
         </force>
      </forces>
      <ensemble>
         <temperature>  9.34210484e-04</temperature>
         <eens>  1.81946878e-01</eens>
         <hamiltonian_weights shape='(1)'> [   1.00000000e+00 ] </hamiltonian_weights>
         <time>  2.68284840e+06</time>
      </ensemble>
      <motion mode='dynamics'>
         <dynamics mode='nvt'>
            <thermostat mode='langevin'>
               <ethermo>  2.29546300e+01</ethermo>
               <tau>  4.13413730e+04</tau>
            </thermostat>
            <timestep>  2.06706865e+01</timestep>
            <nmts shape='(1)'> [ 1 ] </nmts>
         </dynamics>
      </motion>
      <beads natoms='3054' nbeads='1'>
         <q shape='(1, 9162)'>
          [   5.68995056e+01,   3.23508434e+01,   2.45671970e+01,   5.52281361e+01,   3.22407113e+01, 
              2.52909689e+01,   5.72351066e+01,   3.41012093e+01,   2.45652140e+01,   5.85148994e+01, 
              4.30284771e+01,   6.55863078e+01,   5.87189976e+01,   4.26691070e+01,   6.73795803e+01, 
              6.01889152e+01,   4.36110496e+01,   6.50302100e+01,   1.32222862e+01,   3.25471119e+01, 
              4.05316962e+01,   1.47907486e+01,   3.16538536e+01,   4.05423926e+01,   1.35840020e+01, 
              3.42543976e+01,   4.01369507e+01,   1.91244934e+01,   4.06604775e+01,   1.56200895e+01, 
              2.09467179e+01,   4.06831593e+01,   1.53519888e+01,   1.84845714e+01,   4.08499022e+01, 
              1.73375560e+01,   3.54707132e+01,   6.15964870e+01,   2.85023930e+01,   3.61769421e+01, 
              6.16701168e+01,   3.02104088e+01,   3.44865051e+01,   6.30011289e+01,   2.82149383e+01, 
              6.42567607e+00,   4.18622130e+01,   2.43575145e+01,   7.21928009e+00,   4.23108220e+01, 
              2.27743562e+01,   6.82460617e+00,   4.32315190e+01,   2.55365096e+01,   6.12633743e+01, 
              2.17769587e+01,   1.74735055e+01,   6.22555665e+01,   2.16308049e+01,   1.58622732e+01, 
              6.11392916e+01,   2.00113485e+01,   1.79687509e+01,   5.56913235e+01,   2.51623833e+01, 
              1.04696531e+01,   5.50600411e+01,   2.39796881e+01,   9.23732446e+00,   5.53987499e+01, 
              2.42885754e+01,   1.21098342e+01,  -1.72598025e+01,   3.99612835e+01,  -1.51703662e+00, 
             -1.69512136e+01,   3.98613455e+01,   2.54118745e-01,  -1.58848317e+01,   4.09597534e+01, 
             -2.31837067e+00,   1.06420253e+01,   2.63131386e+01,   1.79829302e+01,   9.14123942e+00, 
              2.72368513e+01,   1.79734774e+01,   1.01208759e+01,   2.46330890e+01,   1.76032809e+01, 
              5.95767253e+00,   5.30508985e+01,   1.67147006e+01,   6.19637960e+00,   5.48455701e+01, 
              1.62663085e+01,   7.55573944e+00,   5.25025379e+01,   1.74154325e+01,   1.14804193e+01, 
              6.24171664e+01,   2.35525694e+01,   1.17455135e+01,   6.28187547e+01,   2.18388313e+01, 
              1.30297524e+01,   6.17252150e+01,   2.40410414e+01,   3.18255614e+01,  -4.19297992e-01, 
              4.84256777e+01,   3.19400235e+01,  -1.71119418e+00,   4.71198935e+01,   3.15008469e+01, 
             -1.25428414e+00,   5.00003214e+01,   4.12231858e+01,   3.57818195e+00,   4.33542273e+01, 
              4.17231671e+01,   1.93000731e+00,   4.39024617e+01,   4.05510752e+01,   3.29790909e+00, 
              4.17101547e+01,   4.69160791e+01,   2.55491623e+01,   2.61790595e+00,   4.51290174e+01, 
              2.51360246e+01,   2.22799556e+00,   4.73158000e+01,   2.48229986e+01,   4.23464094e+00, 
              4.94681694e+01,   3.46781072e+01,  -4.07546376e+00,   5.07410980e+01,   3.40468619e+01, 
             -5.24656427e+00,   5.01206230e+01,   3.38249160e+01,  -2.56093533e+00,   6.44885614e+01, 
              6.00473448e+01,   4.20017027e+01,   6.33353982e+01,   6.11709640e+01,   4.11489374e+01, 
              6.59027023e+01,   6.10484079e+01,   4.26748759e+01,   3.25787892e+01,   3.60928349e+01, 
              1.57596040e+01,   3.38295344e+01,   3.58592964e+01,   1.44363614e+01,   3.35259989e+01, 
              3.66762116e+01,   1.72238370e+01,   5.86506304e+00,   5.03158682e+01,   6.93189161e+01, 
              5.70121174e+00,   5.15521000e+01,   6.80341466e+01,   7.62344911e+00,   4.96656228e+01, 
              6.93706768e+01,   5.65166802e+00,   4.98884999e+01,   4.26623087e+01,   6.37799908e+00, 
              5.02890446e+01,   4.41873776e+01,   3.72426239e+00,   5.01624771e+01,   4.28061821e+01, 
              5.61174955e+01,   2.29455788e+01,   6.15536557e+01,   5.77357774e+01,   2.33726916e+01, 
              6.22949464e+01,   5.48311502e+01,   2.28657811e+01,   6.28211656e+01,   5.90434565e+01, 
              2.16296554e+01,   4.87019919e+01,   5.96686248e+01,   2.08621823e+01,   4.71868598e+01, 
              5.78296466e+01,   2.05887644e+01,   4.95477496e+01,   4.85977588e+01,   8.04408702e+00, 
              6.07869642e+00,   5.01964247e+01,   8.79516540e+00,   6.42855427e+00,   4.74775380e+01, 
              8.12743269e+00,   7.52899847e+00,   4.61305490e+01,   7.08230668e+00,   1.09828769e+01, 
              4.52064996e+01,   8.49742498e+00,   1.16026053e+01,   4.50341659e+01,   5.67661664e+00, 
              1.11029161e+01,   3.90749125e+01,   1.82793918e+01,   6.96662542e+01,   4.08186963e+01, 
              1.86946122e+01,   6.91715718e+01,   3.78184859e+01,   1.93261243e+01,   6.88591974e+01, 
              7.25668497e+00,   1.94138050e+01,   5.99534660e+01,   8.25286395e+00,   2.05400316e+01, 
              6.10691894e+01,   5.60173723e+00,   1.93999689e+01,   6.07016538e+01,   7.94228542e+00, 
              2.25168939e+01,   2.28669311e+01,   7.40639189e+00,   2.42126093e+01,   2.33371097e+01, 
              9.48828442e+00,   2.23294577e+01,   2.38377902e+01,  -2.87115537e-01,   3.78969920e+01, 
              2.38192409e+01,   1.80734108e-01,   3.97402824e+01,   2.37673907e+01,   1.20269140e+00, 
              3.69446275e+01,   2.33946988e+01,   6.33590081e+01,   7.92653800e+00,   1.09971789e+01, 
              6.40849054e+01,   9.66953170e+00,   1.09630036e+01,   6.18490410e+01,   8.02082821e+00, 
              1.19472619e+01,   4.89497964e+01,   2.41130108e+01,   6.93318409e+00,   5.03231218e+01, 
              2.50422210e+01,   6.38375711e+00,   4.84061821e+01,   2.45577412e+01,   8.60296667e+00, 
              2.43327996e+01,   1.38055792e+01,   3.16677401e+01,   2.52187928e+01,   1.43725796e+01, 
              3.01769297e+01,   2.25976314e+01,   1.36842244e+01,   3.11126526e+01,   1.88374777e+01, 
              1.44691428e+01,   5.53773651e+01,   1.75990827e+01,   1.31745813e+01,   5.52496197e+01, 
              1.97666043e+01,   1.42041164e+01,   5.69727147e+01,   4.91537884e+01,   2.50877811e+01, 
              1.21030001e+01,   5.02176488e+01,   2.65628440e+01,   1.16943567e+01,   4.88116343e+01, 
              2.51398582e+01,   1.38357197e+01,   4.62614068e+01,   2.73837729e+01,   3.12412206e+01, 
              4.55581107e+01,   2.59060454e+01,   3.03381004e+01,   4.57838545e+01,   2.88403015e+01, 
              3.02508534e+01,   5.63823277e+01,   2.57839523e+00,  -1.56797998e+01,   5.72039176e+01, 
              2.05712507e+00,  -1.40791057e+01,   5.49934266e+01,   3.66006510e+00,  -1.54033702e+01, 
              2.94344711e+01,   2.06686899e+00,   6.70451678e+00,   2.90549248e+01,   3.86322609e+00, 
              7.04692376e+00,   3.07755448e+01,   1.61236685e+00,   7.91153734e+00,   5.67241846e+01, 
              4.43120089e+01,   4.75116202e+01,   5.67252411e+01,   4.31655053e+01,   4.60684050e+01, 
              5.49009146e+01,   4.43835428e+01,   4.80917984e+01,   6.47652010e+01,   4.71730553e+01, 
              5.52826680e+01,   6.45711352e+01,   4.56333409e+01,   5.62704017e+01,   6.32599413e+01, 
              4.72362826e+01,   5.42292933e+01,   3.58590100e+01,   2.75659422e+01,   1.83564967e+01, 
              3.75054383e+01,   2.84812615e+01,   1.84059840e+01,   3.47815696e+01,   2.86625295e+01, 
              1.72168257e+01,   3.71675845e+01,   2.58446887e+01,   1.36143403e+01,   3.65298971e+01, 
              2.63300026e+01,   1.53169423e+01,   3.69475383e+01,   2.74462758e+01,   1.26427476e+01, 
              4.32506834e+01,   2.74432077e+01,   5.24666412e+01,   4.41851289e+01,   2.89652752e+01, 
              5.28190852e+01,   4.15309579e+01,   2.78041724e+01,   5.22767126e+01,   3.10632769e+01, 
              1.07199256e+01,   3.38252637e+01,   2.93012055e+01,   1.05139748e+01,   3.42686876e+01, 
              3.11430406e+01,   1.19807393e+01,   3.23871934e+01,   4.88579774e+01,   6.01079589e+01, 
              8.61716915e-01,   4.96273620e+01,   6.04747599e+01,   2.47928111e+00,   5.02132110e+01, 
              5.96348082e+01,  -2.77182107e-01,   3.34238138e+01,   6.42945392e+01,  -4.75808725e+00, 
              3.40351654e+01,   6.34361932e+01,  -6.25276976e+00,   3.49222559e+01,   6.45980880e+01, 
             -3.73509553e+00,   6.87618656e+01,   6.09598723e+01,   2.94895597e+00,   6.81957935e+01, 
              6.26920484e+01,   3.00887725e+00,   6.79201714e+01,   6.02684259e+01,   4.36540514e+00, 
              7.08141513e+01,   6.42258462e+01,   1.85715661e+01,   7.21424175e+01,   6.54602938e+01, 
              1.84327325e+01,   6.93127034e+01,   6.52535216e+01,   1.84468743e+01,  -1.29863937e+01, 
              3.07166092e+00,   5.21449121e+01,  -1.28922673e+01,   4.07653679e+00,   5.06013963e+01, 
             -1.24301269e+01,   4.16836792e+00,   5.35564476e+01,   8.74738020e+00,   1.94046031e+01, 
              5.41682979e+01,   7.78863832e+00,   2.07936432e+01,   5.33362777e+01,   8.12611719e+00, 
              1.91353864e+01,   5.59429031e+01,   5.11952317e+01,   5.16688506e+00,   3.50858235e+01, 
              5.27707914e+01,   6.05560380e+00,   3.51475603e+01,   5.04046590e+01,   5.52604907e+00, 
              3.67096297e+01,   6.63553114e+01,   4.28622463e+00,   3.78041005e+01,   6.51449872e+01, 
              3.16348907e+00,   3.70732196e+01,   6.57023987e+01,   5.94646907e+00,   3.74543943e+01, 
              4.66419043e+00,   5.16734373e+01,   2.17204189e+01,   4.64652221e+00,   5.00043806e+01, 
              2.11539504e+01,   4.68707420e+00,   5.26435563e+01,   2.01173962e+01,   2.36610037e+01, 
              4.90373895e+01,   2.87955227e+01,   2.45939971e+01,   4.82108239e+01,   2.75860204e+01, 
              2.46979607e+01,   5.04400611e+01,   2.93681502e+01,   4.23501006e+01,   2.34255381e+01, 
              1.37845859e+01,   4.23866819e+01,   2.36567408e+01,   1.55690127e+01,   4.07398239e+01, 
              2.40797496e+01,   1.34925688e+01,   3.47665827e+01,   2.55935163e+01,   2.95471390e+01, 
              3.50569736e+01,   2.65292099e+01,   3.10288773e+01,   3.39977843e+01,   2.67179676e+01, 
              2.84015812e+01,   1.07603339e+01,   4.29473326e+01,   3.99548789e+01,   1.14923616e+01, 
              4.37697293e+01,   4.12935512e+01,   1.08013041e+01,   4.41496112e+01,   3.85968294e+01, 
             -1.61082955e+00,   3.40782162e+01,   3.87603973e+01,  -1.99865797e-01,   3.29949666e+01, 
              3.93482143e+01,  -2.59848736e+00,   3.41764071e+01,   4.02788073e+01,   3.16118337e+01, 
             -8.53222209e+00,   3.32208755e+01,   3.13206734e+01,  -7.21720060e+00,   3.19698124e+01, 
              3.17282975e+01,  -1.00819507e+01,   3.23157835e+01,   2.61269370e+01,   8.18023369e+00, 
              3.52137088e+01,   2.53997461e+01,   8.27863893e+00,   3.35788397e+01,   2.48853850e+01, 
              8.62674151e+00,   3.64571549e+01,   4.99938118e+01,   8.03049228e+00,   3.10543254e+01, 
              5.01695182e+01,   6.98690523e+00,   3.25174588e+01,   4.92450024e+01,   9.67550476e+00, 
              3.15012924e+01,   6.08732344e+01,   1.36885590e+01,   4.59950947e+01,   6.05971332e+01, 
              1.38603065e+01,   4.78945639e+01,   6.07391786e+01,   1.54206561e+01,   4.53223156e+01, 
              6.98661971e+00,   3.95122544e+01,   1.69608938e+01,   5.14432614e+00,   4.00165228e+01, 
              1.67448216e+01,   7.80860558e+00,   3.92409207e+01,   1.52513646e+01,   2.93629990e+01, 
              4.28810436e+01,  -1.22074646e+00,   2.91017201e+01,   4.44159510e+01,  -2.15718283e+00, 
              3.05271428e+01,   4.35085023e+01,   1.04975277e-01,   3.59087131e+01,  -2.17501061e+00, 
              2.07929290e+01,   3.46033855e+01,  -1.06772936e+00,   2.03741077e+01,   3.64039030e+01, 
             -2.08280420e+00,   2.25442126e+01,   3.33214505e+01,   8.34522530e+00,   2.30769996e+01, 
              3.18572887e+01,   9.14601346e+00,   2.23156469e+01,   3.28685929e+01,   6.71322126e+00, 
              2.34677057e+01,   2.82686758e+01,   5.09595361e+01,  -4.74877494e-01,   2.77461334e+01, 
              4.94864610e+01,  -1.45273403e+00,   2.96077861e+01,   5.05289002e+01,   7.58197708e-01, 
              2.90156395e+01,   3.92827607e+01,   1.46120520e+01,   2.76358411e+01,   3.81678673e+01, 
              1.45726245e+01,   3.04469799e+01,   3.83981633e+01,   1.52349189e+01,   1.65416108e+01, 
              2.08451730e+00,   2.55083494e+01,   1.67263535e+01,   3.35504754e+00,   2.67031712e+01, 
              1.72218337e+01,   5.30949817e-01,   2.63263415e+01,   1.33486507e+01,  -5.50867334e+00, 
              1.10956980e+01,   1.45861086e+01,  -5.58179464e+00,   9.69251599e+00,   1.40645615e+01, 
             -6.05965393e+00,   1.27584081e+01,   4.52205144e+01,   2.99489883e+01,   2.27218015e+01, 
              4.47804756e+01,   3.00629566e+01,   2.45955692e+01,   4.69862421e+01,   3.02763111e+01, 
              2.24443765e+01,   3.20357288e+01,   2.10760775e+01,   3.11378449e+01,   3.31357764e+01, 
              2.00985505e+01,   3.21909460e+01,   3.28382722e+01,   2.26830562e+01,   3.07330378e+01, 
              3.44945364e+01,   5.42285103e+01,   4.64684246e+01,   3.45647728e+01,   5.31992615e+01, 
              4.79605019e+01,   3.53740520e+01,   5.31813002e+01,   4.51885467e+01,   4.06785815e+01, 
              3.66454206e+01,   4.98423861e+01,   4.13125986e+01,   3.51135598e+01,   4.89103073e+01, 
              4.08824904e+01,   3.66718139e+01,   5.16728816e+01,   4.24128608e+01,   2.36550046e+01, 
              6.50862056e+00,   4.22616883e+01,   2.37980288e+01,   4.67406838e+00,   4.31329068e+01, 
              2.53813806e+01,   7.08218548e+00,   5.96670377e+01,   1.58454813e+01,   5.04240185e+00, 
              6.03950748e+01,   1.45461753e+01,   4.07207798e+00,   5.78739861e+01,   1.53126069e+01, 
              5.19509229e+00,   1.35606648e+01,   3.23749749e+01,   5.03661442e+01,   1.43681065e+01, 
              3.39822139e+01,   5.07249835e+01,   1.28981683e+01,   3.27238753e+01,   4.86864386e+01, 
              1.12099854e+01,   3.30087202e+01,   4.55229951e+01,   1.21795929e+01,   3.28386654e+01, 
              4.39091705e+01,   9.59895291e+00,   3.38005435e+01,   4.52182569e+01,   5.62738944e+01, 
              2.28916781e+01,   5.52864100e+01,   5.52001540e+01,   2.16244385e+01,   5.43971075e+01, 
              5.51936582e+01,   2.36196073e+01,   5.66872078e+01,   4.62398865e+01,   1.31212952e+01, 
              6.57925980e+01,   4.73892217e+01,   1.31272579e+01,   6.71145154e+01,   4.69996506e+01, 
              1.22509675e+01,   6.44558503e+01,   5.55809327e+01,   6.62998196e+01,   1.90010736e+01, 
              5.64512239e+01,   6.52843849e+01,   1.77444028e+01,   5.47181728e+01,   6.51658133e+01, 
              2.00523741e+01,   5.36015472e+01,   3.84652728e+01,   2.63675725e+01,   5.50511379e+01, 
              3.75793582e+01,   2.62304074e+01,   5.25320993e+01,   3.78386734e+01,   2.77600231e+01, 
              1.58544175e+01,   1.22282568e+01,   4.57431078e+01,   1.64909558e+01,   1.38997288e+01, 
              4.62254015e+01,   1.71548439e+01,   1.10931313e+01,   4.63767237e+01,   1.97468208e+01, 
              1.81790594e+01,   2.80659376e+01,   2.13704409e+01,   1.86560543e+01,   2.73058724e+01, 
              1.94557581e+01,   1.97091553e+01,   2.90568580e+01,   1.42639999e+01,   7.52061572e+01, 
             -1.37187304e-01,   1.38240597e+01,   7.66149426e+01,   8.45173205e-01,   1.37453822e+01, 
              7.36796633e+01,   7.28610135e-01,   2.29420387e+01,   4.84923959e+01,   6.42826363e+00, 
              2.47749432e+01,   4.84715663e+01,   6.67128673e+00,   2.26362343e+01,   4.92544761e+01, 
              4.76921370e+00,   2.66902108e+01,   2.15051713e+01,   4.84599250e+01,   2.53729578e+01, 
              2.26705416e+01,   4.89871446e+01,   2.74932503e+01,   2.08004743e+01,   4.99567092e+01, 
              3.29707823e+01,   4.34630991e+01,   4.40708896e+01,   3.20902769e+01,   4.23133735e+01, 
              4.49569651e+01,   3.20741527e+01,   4.50267115e+01,   4.41269511e+01,   1.14308778e+01, 
              6.38339647e+00,   3.48183455e+01,   1.12359234e+01,   5.43198803e+00,   3.33193858e+01, 
              1.01562789e+01,   5.82131396e+00,   3.60040317e+01,  -1.87831449e-01,   1.15804385e+01, 
              3.42084191e+01,   9.18638305e-01,   1.09242544e+01,   3.30200414e+01,   7.31176018e-01, 
              1.24452323e+01,   3.54729355e+01,   4.49528287e+01,   1.86955840e+01,   2.98935286e+01, 
              4.51142813e+01,   1.75498215e+01,   3.12446018e+01,   4.53370619e+01,   1.77964382e+01, 
              2.82592893e+01,   6.12789762e+01,   3.96219807e+00,   2.90963675e+01,   6.06950830e+01, 
              3.87034595e+00,   2.73184908e+01,   6.11417299e+01,   2.20884338e+00,   2.96217429e+01, 
              5.27454207e+01,   1.58299010e+01,   2.36648414e+01,   5.23879225e+01,   1.54487332e+01, 
              2.53128413e+01,   5.12400024e+01,   1.54593269e+01,   2.25920853e+01,   4.89183533e+01, 
              1.97445529e+01,   2.06839826e+01,   4.92592047e+01,   2.13612885e+01,   2.15791076e+01, 
              4.73220157e+01,   1.98843153e+01,   1.98365597e+01,  -3.49399669e-01,   6.27418401e+01, 
             -2.95433208e+00,   1.13836076e-01,   6.15914815e+01,  -1.55915823e+00,   9.04762049e-01, 
              6.39709539e+01,  -3.14010000e+00,   6.87031623e+00,   7.15001101e+01,   1.11833313e+01, 
              7.79595910e+00,   7.18611715e+01,   9.72470955e+00,   7.99526955e+00,   7.16820080e+01, 
              1.25737881e+01,   1.74969000e+00,   4.28382249e+01,   2.27123576e+01,   1.17771665e+00, 
              4.36552673e+01,   2.43455064e+01,   3.50623483e+00,   4.25447465e+01,   2.31157275e+01, 
              1.69228986e+01,   2.94179602e+01,   3.66315397e+01,   1.81646803e+01,   2.97799001e+01, 
              3.52936603e+01,   1.52976222e+01,   2.97266636e+01,   3.57677115e+01,   1.55657996e+01, 
              2.45122968e+01,   3.62643308e+01,   1.38131666e+01,   2.41426101e+01,   3.57100085e+01, 
              1.59258191e+01,   2.63550971e+01,   3.62581387e+01,   1.02277896e+01,   3.57737940e+01, 
              6.12161732e+00,   1.07041374e+01,   3.39668601e+01,   6.16173044e+00,   8.46083974e+00, 
              3.57425495e+01,   6.20907550e+00,   3.74616091e+01,   5.09201454e+01,   4.36174669e+01, 
              3.89776506e+01,   5.15884515e+01,   4.44895161e+01,   3.79264862e+01,   5.09687564e+01, 
              4.18710388e+01,   4.95292631e+01,   3.22618370e+01,   3.72711734e+01,   4.88710649e+01, 
              3.38894695e+01,   3.77838897e+01,   4.81964209e+01,   3.17628303e+01,   3.60010781e+01, 
              1.42233662e+01,   4.96276379e+01,   5.98961755e+01,   1.56333204e+01,   4.97963849e+01, 
              5.88962001e+01,   1.31529285e+01,   4.85503520e+01,   5.89033008e+01,   1.09539841e+01, 
              5.83818526e+01,   5.08398748e+01,   1.02244434e+01,   5.75689387e+01,   5.23088451e+01, 
              1.01097694e+01,   5.99665074e+01,   5.05563055e+01,   4.61056617e+01,  -3.91012432e+00, 
              3.46938761e+00,   4.75052033e+01,  -4.60691771e+00,   2.66192079e+00,   4.63882834e+01, 
             -2.18870178e+00,   3.85040928e+00,   3.40163223e+01,  -5.76719664e+00,   1.56738942e+01, 
              3.55648401e+01,  -4.95611092e+00,   1.62875311e+01,   3.28194318e+01,  -4.28224005e+00, 
              1.58505053e+01,   3.90991567e+01,   1.92681718e+01,   4.52477577e+01,   3.99579296e+01, 
              1.98228654e+01,   4.37068964e+01,   4.04266789e+01,   1.85635835e+01,   4.63499061e+01, 
              3.59895251e+01,   2.75594883e+01,   6.17553815e+01,   3.48018125e+01,   2.67292662e+01, 
              6.29512105e+01,   3.60172390e+01,   2.62416018e+01,   6.04932677e+01,   5.47177540e+01, 
              4.74937060e+00,   5.17452363e+01,   5.59053779e+01,   3.72644921e+00,   5.08133068e+01, 
              5.50636737e+01,   6.53673682e+00,   5.16620954e+01,   4.81564079e+01,   5.24415612e+00, 
              5.62668513e+01,   4.76309225e+01,   3.96834289e+00,   5.75867911e+01,   4.99755002e+01, 